32
pbc="T T T" Lattice="13.151   0.00    0.0000     0.0000    3.923   0.0000    0.00000    0.00000   5.762" Properties=species:S:1:pos:R:3:nummol:I:1 Time=0
 O    4.912161    3.485585    0.000000
 O    8.238839    0.437415    2.881000
 O   11.487661    2.398915    0.000000
 O    1.663339    1.524085    2.881000
 H    4.247773    3.691543    5.306802
 H    8.903227    0.231457    2.425802
 H   10.823273    2.192957    5.306802
 H    2.327727    1.730043    2.425802
 O    3.247508    2.396561    0.980692
 O    9.903492    1.526439    3.861692
 O    9.823008    3.487939    0.980692
 O    3.327992    0.435061    3.861692
 C    4.409399    2.753946    0.977811
 C    8.741601    1.169054    3.858811
 C   10.984899    3.130554    0.977811
 C    2.166101    0.792446    3.858811
 C    5.400853    2.416568    2.038019
 C    7.750147    1.506432    4.919020
 C   11.976353    3.467932    2.038019
 C    1.174647    0.455068    4.919020
 H    4.957927    1.973269    2.777284
 H    8.193073    1.949731    5.658284
 H   11.533427    3.911231    2.777284
 H    1.617573    0.011769    5.658284
 H    6.115215    1.969346    1.717076
 H    7.035785    1.953654    4.598076
 H   12.690715    3.915154    1.717076
 H    0.460285    0.007846    4.598076
 H    5.812742    3.228629    2.425802
 H    7.338258    0.694371    5.306802
 H   12.388242    2.655871    2.425802
 H    0.762758    1.267129    5.306802
