1920
pbc="T T T" Lattice="28.715  0.000  0.000  0.000  27.084  0.000  -4.836  0.000  27.039" Properties=species:S:1:pos:R:3:nummol:I:1 Time=0 
O  -8.04331  -6.31344 -11.03397
C  -8.65677  -7.30738 -11.39355
C  -8.15431  -8.65958 -11.11442
C  -9.93229  -7.18539 -12.13228
C  -8.80831  -9.74221 -11.52672
C -10.08383  -9.62022 -12.26545
O -10.69729 -10.61416 -12.62503
C -10.58629  -8.26802 -12.54458
H  -7.23366  -8.77747 -10.56222
H -10.33745  -6.20628 -12.33909
H  -8.40315 -10.72132 -11.31991
H -11.50694  -8.15013 -13.09678
O  -8.64781 -13.99966  -7.65417
C  -9.26127 -13.00572  -8.01375
C  -8.75881 -11.65352  -7.73462
C -10.53679 -13.12771  -8.75248
C  -9.41281 -10.57089  -8.14692
C -10.68833 -10.69288  -8.88565
O -11.30179  -9.69894  -9.24523
C -11.19079 -12.04508  -9.16478
H  -7.83816 -11.53563  -7.18242
H -10.94195 -14.10683  -8.95929
H  -9.00765  -9.59177  -7.94011
H -12.11144 -12.16297  -9.71698
O  -9.25231  -6.31344  -4.27427
C  -9.86577  -7.30738  -4.63385
C  -9.36331  -8.65958  -4.35472
C -11.14129  -7.18539  -5.37258
C -10.01731  -9.74221  -4.76702
C -11.29283  -9.62022  -5.50575
O -11.90629 -10.61416  -5.86533
C -11.79529  -8.26802  -5.78488
H  -8.44266  -8.77747  -3.80252
H -11.54645  -6.20628  -5.57939
H  -9.61215 -10.72132  -4.56021
H -12.71594  -8.15013  -6.33708
O  -9.85681 -13.99966  -0.89437
C -10.47027 -13.00572  -1.25395
C  -9.96781 -11.65352  -0.97482
C -11.74579 -13.12771  -1.99268
C -10.62181 -10.57089  -1.38712
C -11.89733 -10.69288  -2.12585
O -12.51079  -9.69894  -2.48543
C -12.39979 -12.04508  -2.40498
H  -9.04716 -11.53563  -0.42262
H -12.15095 -14.10683  -2.19949
H -10.21665  -9.59177  -1.18031
H -13.32044 -12.16297  -2.95718
O -10.46121  -6.31334   2.48543
C -11.07467  -7.30728   2.12585
C -10.57221  -8.65948   2.40498
C -12.35019  -7.18529   1.38712
C -11.22621  -9.74211   1.99268
C -12.50173  -9.62012   1.25395
O -13.11519 -10.61406   0.89437
C -13.00419  -8.26792   0.97482
H  -9.65156  -8.77737   2.95718
H -12.75535  -6.20618   1.18031
H -10.82105 -10.72122   2.19949
H -13.92484  -8.15003   0.42262
O -11.06571 -13.99956   5.86533
C -11.67917 -13.00562   5.50575
C -11.17671 -11.65342   5.78488
C -12.95469 -13.12761   4.76702
C -11.83071 -10.57079   5.37258
C -13.10623 -10.69278   4.63385
O -13.71969  -9.69884   4.27427
C -13.60869 -12.04498   4.35472
H -10.25606 -11.53553   6.33708
H -13.35985 -14.10673   4.56021
H -11.42555  -9.59167   5.57939
H -14.52934 -12.16287   3.80252
O -11.67021  -6.31334   9.24523
C -12.28367  -7.30728   8.88565
C -11.78121  -8.65948   9.16478
C -13.55919  -7.18529   8.14692
C -12.43521  -9.74211   8.75248
C -13.71073  -9.62012   8.01375
O -14.32419 -10.61406   7.65417
C -14.21319  -8.26792   7.73462
H -10.86056  -8.77737   9.71698
H -13.96435  -6.20618   7.94011
H -12.03005 -10.72122   8.95929
H -15.13384  -8.15003   7.18242
O -12.27471 -13.99956  12.62503
C -12.88817 -13.00562  12.26545
C -12.38571 -11.65342  12.54458
C -14.16369 -13.12761  11.52672
C -13.03971 -10.57079  12.13228
C -14.31523 -10.69278  11.39355
O -14.92869  -9.69884  11.03397
C -14.81769 -12.04498  11.11442
H -11.46506 -11.53553  13.09678
H -14.56885 -14.10673  11.31991
H -12.63455  -9.59167  12.33909
H -15.73834 -12.16287  10.56222
O  -8.04331   0.45756 -11.03397
C  -8.65677  -0.53638 -11.39355
C  -8.15431  -1.88858 -11.11442
C  -9.93229  -0.41439 -12.13228
C  -8.80831  -2.97121 -11.52672
C -10.08383  -2.84922 -12.26545
O -10.69729  -3.84316 -12.62503
C -10.58629  -1.49702 -12.54458
H  -7.23366  -2.00647 -10.56222
H -10.33745   0.56472 -12.33909
H  -8.40315  -3.95032 -11.31991
H -11.50694  -1.37913 -13.09678
O  -8.64781  -7.22866  -7.65417
C  -9.26127  -6.23472  -8.01375
C  -8.75881  -4.88252  -7.73462
C -10.53679  -6.35671  -8.75248
C  -9.41281  -3.79989  -8.14692
C -10.68833  -3.92188  -8.88565
O -11.30179  -2.92794  -9.24523
C -11.19079  -5.27408  -9.16478
H  -7.83816  -4.76463  -7.18242
H -10.94195  -7.33583  -8.95929
H  -9.00765  -2.82077  -7.94011
H -12.11144  -5.39197  -9.71698
O  -9.25231   0.45756  -4.27427
C  -9.86577  -0.53638  -4.63385
C  -9.36331  -1.88858  -4.35472
C -11.14129  -0.41439  -5.37258
C -10.01731  -2.97121  -4.76702
C -11.29283  -2.84922  -5.50575
O -11.90629  -3.84316  -5.86533
C -11.79529  -1.49702  -5.78488
H  -8.44266  -2.00647  -3.80252
H -11.54645   0.56472  -5.57939
H  -9.61215  -3.95032  -4.56021
H -12.71594  -1.37913  -6.33708
O  -9.85681  -7.22866  -0.89437
C -10.47027  -6.23472  -1.25395
C  -9.96781  -4.88252  -0.97482
C -11.74579  -6.35671  -1.99268
C -10.62181  -3.79989  -1.38712
C -11.89733  -3.92188  -2.12585
O -12.51079  -2.92794  -2.48543
C -12.39979  -5.27408  -2.40498
H  -9.04716  -4.76463  -0.42262
H -12.15095  -7.33583  -2.19949
H -10.21665  -2.82077  -1.18031
H -13.32044  -5.39197  -2.95718
O -10.46121   0.45766   2.48543
C -11.07467  -0.53628   2.12585
C -10.57221  -1.88848   2.40498
C -12.35019  -0.41429   1.38712
C -11.22621  -2.97111   1.99268
C -12.50173  -2.84912   1.25395
O -13.11519  -3.84306   0.89437
C -13.00419  -1.49692   0.97482
H  -9.65156  -2.00637   2.95718
H -12.75535   0.56482   1.18031
H -10.82105  -3.95022   2.19949
H -13.92484  -1.37903   0.42262
O -11.06571  -7.22856   5.86533
C -11.67917  -6.23462   5.50575
C -11.17671  -4.88242   5.78488
C -12.95469  -6.35661   4.76702
C -11.83071  -3.79979   5.37258
C -13.10623  -3.92178   4.63385
O -13.71969  -2.92784   4.27427
C -13.60869  -5.27398   4.35472
H -10.25606  -4.76453   6.33708
H -13.35985  -7.33573   4.56021
H -11.42555  -2.82067   5.57939
H -14.52934  -5.39187   3.80252
O -11.67021   0.45766   9.24523
C -12.28367  -0.53628   8.88565
C -11.78121  -1.88848   9.16478
C -13.55919  -0.41429   8.14692
C -12.43521  -2.97111   8.75248
C -13.71073  -2.84912   8.01375
O -14.32419  -3.84306   7.65417
C -14.21319  -1.49692   7.73462
H -10.86056  -2.00637   9.71698
H -13.96435   0.56482   7.94011
H -12.03005  -3.95022   8.95929
H -15.13384  -1.37903   7.18242
O -12.27471  -7.22856  12.62503
C -12.88817  -6.23462  12.26545
C -12.38571  -4.88242  12.54458
C -14.16369  -6.35661  11.52672
C -13.03971  -3.79979  12.13228
C -14.31523  -3.92178  11.39355
O -14.92869  -2.92784  11.03397
C -14.81769  -5.27398  11.11442
H -11.46506  -4.76453  13.09678
H -14.56885  -7.33573  11.31991
H -12.63455  -2.82067  12.33909
H -15.73834  -5.39187  10.56222
O  -8.04331   7.22856 -11.03397
C  -8.65677   6.23462 -11.39355
C  -8.15431   4.88242 -11.11442
C  -9.93229   6.35661 -12.13228
C  -8.80831   3.79979 -11.52672
C -10.08383   3.92178 -12.26545
O -10.69729   2.92784 -12.62503
C -10.58629   5.27398 -12.54458
H  -7.23366   4.76453 -10.56222
H -10.33745   7.33572 -12.33909
H  -8.40315   2.82068 -11.31991
H -11.50694   5.39187 -13.09678
O  -8.64781  -0.45766  -7.65417
C  -9.26127   0.53628  -8.01375
C  -8.75881   1.88848  -7.73462
C -10.53679   0.41429  -8.75248
C  -9.41281   2.97111  -8.14692
C -10.68833   2.84912  -8.88565
O -11.30179   3.84306  -9.24523
C -11.19079   1.49692  -9.16478
H  -7.83816   2.00637  -7.18242
H -10.94195  -0.56483  -8.95929
H  -9.00765   3.95023  -7.94011
H -12.11144   1.37903  -9.71698
O  -9.25231   7.22856  -4.27427
C  -9.86577   6.23462  -4.63385
C  -9.36331   4.88242  -4.35472
C -11.14129   6.35661  -5.37258
C -10.01731   3.79979  -4.76702
C -11.29283   3.92178  -5.50575
O -11.90629   2.92784  -5.86533
C -11.79529   5.27398  -5.78488
H  -8.44266   4.76453  -3.80252
H -11.54645   7.33572  -5.57939
H  -9.61215   2.82068  -4.56021
H -12.71594   5.39187  -6.33708
O  -9.85681  -0.45766  -0.89437
C -10.47027   0.53628  -1.25395
C  -9.96781   1.88848  -0.97482
C -11.74579   0.41429  -1.99268
C -10.62181   2.97111  -1.38712
C -11.89733   2.84912  -2.12585
O -12.51079   3.84306  -2.48543
C -12.39979   1.49692  -2.40498
H  -9.04716   2.00637  -0.42262
H -12.15095  -0.56483  -2.19949
H -10.21665   3.95023  -1.18031
H -13.32044   1.37903  -2.95718
O -10.46121   7.22866   2.48543
C -11.07467   6.23472   2.12585
C -10.57221   4.88252   2.40498
C -12.35019   6.35671   1.38712
C -11.22621   3.79989   1.99268
C -12.50173   3.92188   1.25395
O -13.11519   2.92794   0.89437
C -13.00419   5.27408   0.97482
H  -9.65156   4.76463   2.95718
H -12.75535   7.33582   1.18031
H -10.82105   2.82078   2.19949
H -13.92484   5.39197   0.42262
O -11.06571  -0.45756   5.86533
C -11.67917   0.53638   5.50575
C -11.17671   1.88858   5.78488
C -12.95469   0.41439   4.76702
C -11.83071   2.97121   5.37258
C -13.10623   2.84922   4.63385
O -13.71969   3.84316   4.27427
C -13.60869   1.49702   4.35472
H -10.25606   2.00647   6.33708
H -13.35985  -0.56473   4.56021
H -11.42555   3.95033   5.57939
H -14.52934   1.37913   3.80252
O -11.67021   7.22866   9.24523
C -12.28367   6.23472   8.88565
C -11.78121   4.88252   9.16478
C -13.55919   6.35671   8.14692
C -12.43521   3.79989   8.75248
C -13.71073   3.92188   8.01375
O -14.32419   2.92794   7.65417
C -14.21319   5.27408   7.73462
H -10.86056   4.76463   9.71698
H -13.96435   7.33582   7.94011
H -12.03005   2.82078   8.95929
H -15.13384   5.39197   7.18242
O -12.27471  -0.45756  12.62503
C -12.88817   0.53638  12.26545
C -12.38571   1.88858  12.54458
C -14.16369   0.41439  11.52672
C -13.03971   2.97121  12.13228
C -14.31523   2.84922  11.39355
O -14.92869   3.84316  11.03397
C -14.81769   1.49702  11.11442
H -11.46506   2.00647  13.09678
H -14.56885  -0.56473  11.31991
H -12.63455   3.95033  12.33909
H -15.73834   1.37913  10.56222
O  -8.04331  13.99956 -11.03397
C  -8.65677  13.00562 -11.39355
C  -8.15431  11.65342 -11.11442
C  -9.93229  13.12761 -12.13228
C  -8.80831  10.57079 -11.52672
C -10.08383  10.69278 -12.26545
O -10.69729   9.69884 -12.62503
C -10.58629  12.04498 -12.54458
H  -7.23366  11.53553 -10.56222
H -10.33745  14.10672 -12.33909
H  -8.40315   9.59168 -11.31991
H -11.50694  12.16287 -13.09678
O  -8.64781   6.31334  -7.65417
C  -9.26127   7.30728  -8.01375
C  -8.75881   8.65948  -7.73462
C -10.53679   7.18529  -8.75248
C  -9.41281   9.74211  -8.14692
C -10.68833   9.62012  -8.88565
O -11.30179  10.61406  -9.24523
C -11.19079   8.26792  -9.16478
H  -7.83816   8.77737  -7.18242
H -10.94195   6.20617  -8.95929
H  -9.00765  10.72123  -7.94011
H -12.11144   8.15003  -9.71698
O  -9.25231  13.99956  -4.27427
C  -9.86577  13.00562  -4.63385
C  -9.36331  11.65342  -4.35472
C -11.14129  13.12761  -5.37258
C -10.01731  10.57079  -4.76702
C -11.29283  10.69278  -5.50575
O -11.90629   9.69884  -5.86533
C -11.79529  12.04498  -5.78488
H  -8.44266  11.53553  -3.80252
H -11.54645  14.10672  -5.57939
H  -9.61215   9.59168  -4.56021
H -12.71594  12.16287  -6.33708
O  -9.85681   6.31334  -0.89437
C -10.47027   7.30728  -1.25395
C  -9.96781   8.65948  -0.97482
C -11.74579   7.18529  -1.99268
C -10.62181   9.74211  -1.38712
C -11.89733   9.62012  -2.12585
O -12.51079  10.61406  -2.48543
C -12.39979   8.26792  -2.40498
H  -9.04716   8.77737  -0.42262
H -12.15095   6.20617  -2.19949
H -10.21665  10.72123  -1.18031
H -13.32044   8.15003  -2.95718
O -10.46121  13.99966   2.48543
C -11.07467  13.00572   2.12585
C -10.57221  11.65352   2.40498
C -12.35019  13.12771   1.38712
C -11.22621  10.57089   1.99268
C -12.50173  10.69288   1.25395
O -13.11519   9.69894   0.89437
C -13.00419  12.04508   0.97482
H  -9.65156  11.53563   2.95718
H -12.75535  14.10682   1.18031
H -10.82105   9.59178   2.19949
H -13.92484  12.16297   0.42262
O -11.06571   6.31344   5.86533
C -11.67917   7.30738   5.50575
C -11.17671   8.65958   5.78488
C -12.95469   7.18539   4.76702
C -11.83071   9.74221   5.37258
C -13.10623   9.62022   4.63385
O -13.71969  10.61416   4.27427
C -13.60869   8.26802   4.35472
H -10.25606   8.77747   6.33708
H -13.35985   6.20627   4.56021
H -11.42555  10.72133   5.57939
H -14.52934   8.15013   3.80252
O -11.67021  13.99966   9.24523
C -12.28367  13.00572   8.88565
C -11.78121  11.65352   9.16478
C -13.55919  13.12771   8.14692
C -12.43521  10.57089   8.75248
C -13.71073  10.69288   8.01375
O -14.32419   9.69894   7.65417
C -14.21319  12.04508   7.73462
H -10.86056  11.53563   9.71698
H -13.96435  14.10682   7.94011
H -12.03005   9.59178   8.95929
H -15.13384  12.16297   7.18242
O -12.27471   6.31344  12.62503
C -12.88817   7.30738  12.26545
C -12.38571   8.65958  12.54458
C -14.16369   7.18539  11.52672
C -13.03971   9.74221  12.13228
C -14.31523   9.62022  11.39355
O -14.92869  10.61416  11.03397
C -14.81769   8.26802  11.11442
H -11.46506   8.77747  13.09678
H -14.56885   6.20627  11.31991
H -12.63455  10.72133  12.33909
H -15.73834   8.15013  10.56222
O  -2.30031  -6.31344 -11.03397
C  -2.91377  -7.30738 -11.39355
C  -2.41131  -8.65958 -11.11442
C  -4.18929  -7.18539 -12.13228
C  -3.06531  -9.74221 -11.52672
C  -4.34083  -9.62022 -12.26545
O  -4.95429 -10.61416 -12.62503
C  -4.84329  -8.26802 -12.54458
H  -1.49066  -8.77747 -10.56222
H  -4.59445  -6.20628 -12.33909
H  -2.66015 -10.72132 -11.31991
H  -5.76394  -8.15013 -13.09678
O  -2.90481 -13.99966  -7.65417
C  -3.51827 -13.00572  -8.01375
C  -3.01581 -11.65352  -7.73462
C  -4.79379 -13.12771  -8.75248
C  -3.66981 -10.57089  -8.14692
C  -4.94533 -10.69288  -8.88565
O  -5.55879  -9.69894  -9.24523
C  -5.44779 -12.04508  -9.16478
H  -2.09516 -11.53563  -7.18242
H  -5.19895 -14.10683  -8.95929
H  -3.26465  -9.59177  -7.94011
H  -6.36844 -12.16297  -9.71698
O  -3.50931  -6.31344  -4.27427
C  -4.12277  -7.30738  -4.63385
C  -3.62031  -8.65958  -4.35472
C  -5.39829  -7.18539  -5.37258
C  -4.27431  -9.74221  -4.76702
C  -5.54983  -9.62022  -5.50575
O  -6.16329 -10.61416  -5.86533
C  -6.05229  -8.26802  -5.78488
H  -2.69966  -8.77747  -3.80252
H  -5.80345  -6.20628  -5.57939
H  -3.86915 -10.72132  -4.56021
H  -6.97294  -8.15013  -6.33708
O  -4.11381 -13.99966  -0.89437
C  -4.72727 -13.00572  -1.25395
C  -4.22481 -11.65352  -0.97482
C  -6.00279 -13.12771  -1.99268
C  -4.87881 -10.57089  -1.38712
C  -6.15433 -10.69288  -2.12585
O  -6.76779  -9.69894  -2.48543
C  -6.65679 -12.04508  -2.40498
H  -3.30416 -11.53563  -0.42262
H  -6.40795 -14.10683  -2.19949
H  -4.47365  -9.59177  -1.18031
H  -7.57744 -12.16297  -2.95718
O  -4.71821  -6.31334   2.48543
C  -5.33167  -7.30728   2.12585
C  -4.82921  -8.65948   2.40498
C  -6.60719  -7.18529   1.38712
C  -5.48321  -9.74211   1.99268
C  -6.75873  -9.62012   1.25395
O  -7.37219 -10.61406   0.89437
C  -7.26119  -8.26792   0.97482
H  -3.90856  -8.77737   2.95718
H  -7.01235  -6.20618   1.18031
H  -5.07805 -10.72122   2.19949
H  -8.18184  -8.15003   0.42262
O  -5.32271 -13.99956   5.86533
C  -5.93617 -13.00562   5.50575
C  -5.43371 -11.65342   5.78488
C  -7.21169 -13.12761   4.76702
C  -6.08771 -10.57079   5.37258
C  -7.36323 -10.69278   4.63385
O  -7.97669  -9.69884   4.27427
C  -7.86569 -12.04498   4.35472
H  -4.51306 -11.53553   6.33708
H  -7.61685 -14.10673   4.56021
H  -5.68255  -9.59167   5.57939
H  -8.78634 -12.16287   3.80252
O  -5.92721  -6.31334   9.24523
C  -6.54067  -7.30728   8.88565
C  -6.03821  -8.65948   9.16478
C  -7.81619  -7.18529   8.14692
C  -6.69221  -9.74211   8.75248
C  -7.96773  -9.62012   8.01375
O  -8.58119 -10.61406   7.65417
C  -8.47019  -8.26792   7.73462
H  -5.11756  -8.77737   9.71698
H  -8.22135  -6.20618   7.94011
H  -6.28705 -10.72122   8.95929
H  -9.39084  -8.15003   7.18242
O  -6.53171 -13.99956  12.62503
C  -7.14517 -13.00562  12.26545
C  -6.64271 -11.65342  12.54458
C  -8.42069 -13.12761  11.52672
C  -7.29671 -10.57079  12.13228
C  -8.57223 -10.69278  11.39355
O  -9.18569  -9.69884  11.03397
C  -9.07469 -12.04498  11.11442
H  -5.72206 -11.53553  13.09678
H  -8.82585 -14.10673  11.31991
H  -6.89155  -9.59167  12.33909
H  -9.99534 -12.16287  10.56222
O  -2.30031   0.45756 -11.03397
C  -2.91377  -0.53638 -11.39355
C  -2.41131  -1.88858 -11.11442
C  -4.18929  -0.41439 -12.13228
C  -3.06531  -2.97121 -11.52672
C  -4.34083  -2.84922 -12.26545
O  -4.95429  -3.84316 -12.62503
C  -4.84329  -1.49702 -12.54458
H  -1.49066  -2.00647 -10.56222
H  -4.59445   0.56472 -12.33909
H  -2.66015  -3.95032 -11.31991
H  -5.76394  -1.37913 -13.09678
O  -2.90481  -7.22866  -7.65417
C  -3.51827  -6.23472  -8.01375
C  -3.01581  -4.88252  -7.73462
C  -4.79379  -6.35671  -8.75248
C  -3.66981  -3.79989  -8.14692
C  -4.94533  -3.92188  -8.88565
O  -5.55879  -2.92794  -9.24523
C  -5.44779  -5.27408  -9.16478
H  -2.09516  -4.76463  -7.18242
H  -5.19895  -7.33583  -8.95929
H  -3.26465  -2.82077  -7.94011
H  -6.36844  -5.39197  -9.71698
O  -3.50931   0.45756  -4.27427
C  -4.12277  -0.53638  -4.63385
C  -3.62031  -1.88858  -4.35472
C  -5.39829  -0.41439  -5.37258
C  -4.27431  -2.97121  -4.76702
C  -5.54983  -2.84922  -5.50575
O  -6.16329  -3.84316  -5.86533
C  -6.05229  -1.49702  -5.78488
H  -2.69966  -2.00647  -3.80252
H  -5.80345   0.56472  -5.57939
H  -3.86915  -3.95032  -4.56021
H  -6.97294  -1.37913  -6.33708
O  -4.11381  -7.22866  -0.89437
C  -4.72727  -6.23472  -1.25395
C  -4.22481  -4.88252  -0.97482
C  -6.00279  -6.35671  -1.99268
C  -4.87881  -3.79989  -1.38712
C  -6.15433  -3.92188  -2.12585
O  -6.76779  -2.92794  -2.48543
C  -6.65679  -5.27408  -2.40498
H  -3.30416  -4.76463  -0.42262
H  -6.40795  -7.33583  -2.19949
H  -4.47365  -2.82077  -1.18031
H  -7.57744  -5.39197  -2.95718
O  -4.71821   0.45766   2.48543
C  -5.33167  -0.53628   2.12585
C  -4.82921  -1.88848   2.40498
C  -6.60719  -0.41429   1.38712
C  -5.48321  -2.97111   1.99268
C  -6.75873  -2.84912   1.25395
O  -7.37219  -3.84306   0.89437
C  -7.26119  -1.49692   0.97482
H  -3.90856  -2.00637   2.95718
H  -7.01235   0.56482   1.18031
H  -5.07805  -3.95022   2.19949
H  -8.18184  -1.37903   0.42262
O  -5.32271  -7.22856   5.86533
C  -5.93617  -6.23462   5.50575
C  -5.43371  -4.88242   5.78488
C  -7.21169  -6.35661   4.76702
C  -6.08771  -3.79979   5.37258
C  -7.36323  -3.92178   4.63385
O  -7.97669  -2.92784   4.27427
C  -7.86569  -5.27398   4.35472
H  -4.51306  -4.76453   6.33708
H  -7.61685  -7.33573   4.56021
H  -5.68255  -2.82067   5.57939
H  -8.78634  -5.39187   3.80252
O  -5.92721   0.45766   9.24523
C  -6.54067  -0.53628   8.88565
C  -6.03821  -1.88848   9.16478
C  -7.81619  -0.41429   8.14692
C  -6.69221  -2.97111   8.75248
C  -7.96773  -2.84912   8.01375
O  -8.58119  -3.84306   7.65417
C  -8.47019  -1.49692   7.73462
H  -5.11756  -2.00637   9.71698
H  -8.22135   0.56482   7.94011
H  -6.28705  -3.95022   8.95929
H  -9.39084  -1.37903   7.18242
O  -6.53171  -7.22856  12.62503
C  -7.14517  -6.23462  12.26545
C  -6.64271  -4.88242  12.54458
C  -8.42069  -6.35661  11.52672
C  -7.29671  -3.79979  12.13228
C  -8.57223  -3.92178  11.39355
O  -9.18569  -2.92784  11.03397
C  -9.07469  -5.27398  11.11442
H  -5.72206  -4.76453  13.09678
H  -8.82585  -7.33573  11.31991
H  -6.89155  -2.82067  12.33909
H  -9.99534  -5.39187  10.56222
O  -2.30031   7.22856 -11.03397
C  -2.91377   6.23462 -11.39355
C  -2.41131   4.88242 -11.11442
C  -4.18929   6.35661 -12.13228
C  -3.06531   3.79979 -11.52672
C  -4.34083   3.92178 -12.26545
O  -4.95429   2.92784 -12.62503
C  -4.84329   5.27398 -12.54458
H  -1.49066   4.76453 -10.56222
H  -4.59445   7.33572 -12.33909
H  -2.66015   2.82068 -11.31991
H  -5.76394   5.39187 -13.09678
O  -2.90481  -0.45766  -7.65417
C  -3.51827   0.53628  -8.01375
C  -3.01581   1.88848  -7.73462
C  -4.79379   0.41429  -8.75248
C  -3.66981   2.97111  -8.14692
C  -4.94533   2.84912  -8.88565
O  -5.55879   3.84306  -9.24523
C  -5.44779   1.49692  -9.16478
H  -2.09516   2.00637  -7.18242
H  -5.19895  -0.56483  -8.95929
H  -3.26465   3.95023  -7.94011
H  -6.36844   1.37903  -9.71698
O  -3.50931   7.22856  -4.27427
C  -4.12277   6.23462  -4.63385
C  -3.62031   4.88242  -4.35472
C  -5.39829   6.35661  -5.37258
C  -4.27431   3.79979  -4.76702
C  -5.54983   3.92178  -5.50575
O  -6.16329   2.92784  -5.86533
C  -6.05229   5.27398  -5.78488
H  -2.69966   4.76453  -3.80252
H  -5.80345   7.33572  -5.57939
H  -3.86915   2.82068  -4.56021
H  -6.97294   5.39187  -6.33708
O  -4.11381  -0.45766  -0.89437
C  -4.72727   0.53628  -1.25395
C  -4.22481   1.88848  -0.97482
C  -6.00279   0.41429  -1.99268
C  -4.87881   2.97111  -1.38712
C  -6.15433   2.84912  -2.12585
O  -6.76779   3.84306  -2.48543
C  -6.65679   1.49692  -2.40498
H  -3.30416   2.00637  -0.42262
H  -6.40795  -0.56483  -2.19949
H  -4.47365   3.95023  -1.18031
H  -7.57744   1.37903  -2.95718
O  -4.71821   7.22866   2.48543
C  -5.33167   6.23472   2.12585
C  -4.82921   4.88252   2.40498
C  -6.60719   6.35671   1.38712
C  -5.48321   3.79989   1.99268
C  -6.75873   3.92188   1.25395
O  -7.37219   2.92794   0.89437
C  -7.26119   5.27408   0.97482
H  -3.90856   4.76463   2.95718
H  -7.01235   7.33582   1.18031
H  -5.07805   2.82078   2.19949
H  -8.18184   5.39197   0.42262
O  -5.32271  -0.45756   5.86533
C  -5.93617   0.53638   5.50575
C  -5.43371   1.88858   5.78488
C  -7.21169   0.41439   4.76702
C  -6.08771   2.97121   5.37258
C  -7.36323   2.84922   4.63385
O  -7.97669   3.84316   4.27427
C  -7.86569   1.49702   4.35472
H  -4.51306   2.00647   6.33708
H  -7.61685  -0.56473   4.56021
H  -5.68255   3.95033   5.57939
H  -8.78634   1.37913   3.80252
O  -5.92721   7.22866   9.24523
C  -6.54067   6.23472   8.88565
C  -6.03821   4.88252   9.16478
C  -7.81619   6.35671   8.14692
C  -6.69221   3.79989   8.75248
C  -7.96773   3.92188   8.01375
O  -8.58119   2.92794   7.65417
C  -8.47019   5.27408   7.73462
H  -5.11756   4.76463   9.71698
H  -8.22135   7.33582   7.94011
H  -6.28705   2.82078   8.95929
H  -9.39084   5.39197   7.18242
O  -6.53171  -0.45756  12.62503
C  -7.14517   0.53638  12.26545
C  -6.64271   1.88858  12.54458
C  -8.42069   0.41439  11.52672
C  -7.29671   2.97121  12.13228
C  -8.57223   2.84922  11.39355
O  -9.18569   3.84316  11.03397
C  -9.07469   1.49702  11.11442
H  -5.72206   2.00647  13.09678
H  -8.82585  -0.56473  11.31991
H  -6.89155   3.95033  12.33909
H  -9.99534   1.37913  10.56222
O  -2.30031  13.99956 -11.03397
C  -2.91377  13.00562 -11.39355
C  -2.41131  11.65342 -11.11442
C  -4.18929  13.12761 -12.13228
C  -3.06531  10.57079 -11.52672
C  -4.34083  10.69278 -12.26545
O  -4.95429   9.69884 -12.62503
C  -4.84329  12.04498 -12.54458
H  -1.49066  11.53553 -10.56222
H  -4.59445  14.10672 -12.33909
H  -2.66015   9.59168 -11.31991
H  -5.76394  12.16287 -13.09678
O  -2.90481   6.31334  -7.65417
C  -3.51827   7.30728  -8.01375
C  -3.01581   8.65948  -7.73462
C  -4.79379   7.18529  -8.75248
C  -3.66981   9.74211  -8.14692
C  -4.94533   9.62012  -8.88565
O  -5.55879  10.61406  -9.24523
C  -5.44779   8.26792  -9.16478
H  -2.09516   8.77737  -7.18242
H  -5.19895   6.20617  -8.95929
H  -3.26465  10.72123  -7.94011
H  -6.36844   8.15003  -9.71698
O  -3.50931  13.99956  -4.27427
C  -4.12277  13.00562  -4.63385
C  -3.62031  11.65342  -4.35472
C  -5.39829  13.12761  -5.37258
C  -4.27431  10.57079  -4.76702
C  -5.54983  10.69278  -5.50575
O  -6.16329   9.69884  -5.86533
C  -6.05229  12.04498  -5.78488
H  -2.69966  11.53553  -3.80252
H  -5.80345  14.10672  -5.57939
H  -3.86915   9.59168  -4.56021
H  -6.97294  12.16287  -6.33708
O  -4.11381   6.31334  -0.89437
C  -4.72727   7.30728  -1.25395
C  -4.22481   8.65948  -0.97482
C  -6.00279   7.18529  -1.99268
C  -4.87881   9.74211  -1.38712
C  -6.15433   9.62012  -2.12585
O  -6.76779  10.61406  -2.48543
C  -6.65679   8.26792  -2.40498
H  -3.30416   8.77737  -0.42262
H  -6.40795   6.20617  -2.19949
H  -4.47365  10.72123  -1.18031
H  -7.57744   8.15003  -2.95718
O  -4.71821  13.99966   2.48543
C  -5.33167  13.00572   2.12585
C  -4.82921  11.65352   2.40498
C  -6.60719  13.12771   1.38712
C  -5.48321  10.57089   1.99268
C  -6.75873  10.69288   1.25395
O  -7.37219   9.69894   0.89437
C  -7.26119  12.04508   0.97482
H  -3.90856  11.53563   2.95718
H  -7.01235  14.10682   1.18031
H  -5.07805   9.59178   2.19949
H  -8.18184  12.16297   0.42262
O  -5.32271   6.31344   5.86533
C  -5.93617   7.30738   5.50575
C  -5.43371   8.65958   5.78488
C  -7.21169   7.18539   4.76702
C  -6.08771   9.74221   5.37258
C  -7.36323   9.62022   4.63385
O  -7.97669  10.61416   4.27427
C  -7.86569   8.26802   4.35472
H  -4.51306   8.77747   6.33708
H  -7.61685   6.20627   4.56021
H  -5.68255  10.72133   5.57939
H  -8.78634   8.15013   3.80252
O  -5.92721  13.99966   9.24523
C  -6.54067  13.00572   8.88565
C  -6.03821  11.65352   9.16478
C  -7.81619  13.12771   8.14692
C  -6.69221  10.57089   8.75248
C  -7.96773  10.69288   8.01375
O  -8.58119   9.69894   7.65417
C  -8.47019  12.04508   7.73462
H  -5.11756  11.53563   9.71698
H  -8.22135  14.10682   7.94011
H  -6.28705   9.59178   8.95929
H  -9.39084  12.16297   7.18242
O  -6.53171   6.31344  12.62503
C  -7.14517   7.30738  12.26545
C  -6.64271   8.65958  12.54458
C  -8.42069   7.18539  11.52672
C  -7.29671   9.74221  12.13228
C  -8.57223   9.62022  11.39355
O  -9.18569  10.61416  11.03397
C  -9.07469   8.26802  11.11442
H  -5.72206   8.77747  13.09678
H  -8.82585   6.20627  11.31991
H  -6.89155  10.72133  12.33909
H  -9.99534   8.15013  10.56222
O   3.44269  -6.31344 -11.03397
C   2.82923  -7.30738 -11.39355
C   3.33169  -8.65958 -11.11442
C   1.55371  -7.18539 -12.13228
C   2.67769  -9.74221 -11.52672
C   1.40217  -9.62022 -12.26545
O   0.78871 -10.61416 -12.62503
C   0.89971  -8.26802 -12.54458
H   4.25234  -8.77747 -10.56222
H   1.14855  -6.20628 -12.33909
H   3.08285 -10.72132 -11.31991
H  -0.02094  -8.15013 -13.09678
O   2.83819 -13.99966  -7.65417
C   2.22473 -13.00572  -8.01375
C   2.72719 -11.65352  -7.73462
C   0.94921 -13.12771  -8.75248
C   2.07319 -10.57089  -8.14692
C   0.79767 -10.69288  -8.88565
O   0.18421  -9.69894  -9.24523
C   0.29521 -12.04508  -9.16478
H   3.64784 -11.53563  -7.18242
H   0.54405 -14.10683  -8.95929
H   2.47835  -9.59177  -7.94011
H  -0.62544 -12.16297  -9.71698
O   2.23369  -6.31344  -4.27427
C   1.62023  -7.30738  -4.63385
C   2.12269  -8.65958  -4.35472
C   0.34471  -7.18539  -5.37258
C   1.46869  -9.74221  -4.76702
C   0.19317  -9.62022  -5.50575
O  -0.42029 -10.61416  -5.86533
C  -0.30929  -8.26802  -5.78488
H   3.04334  -8.77747  -3.80252
H  -0.06045  -6.20628  -5.57939
H   1.87385 -10.72132  -4.56021
H  -1.22994  -8.15013  -6.33708
O   1.62919 -13.99966  -0.89437
C   1.01573 -13.00572  -1.25395
C   1.51819 -11.65352  -0.97482
C  -0.25979 -13.12771  -1.99268
C   0.86419 -10.57089  -1.38712
C  -0.41133 -10.69288  -2.12585
O  -1.02479  -9.69894  -2.48543
C  -0.91379 -12.04508  -2.40498
H   2.43884 -11.53563  -0.42262
H  -0.66495 -14.10683  -2.19949
H   1.26935  -9.59177  -1.18031
H  -1.83444 -12.16297  -2.95718
O   1.02479  -6.31334   2.48543
C   0.41133  -7.30728   2.12585
C   0.91379  -8.65948   2.40498
C  -0.86419  -7.18529   1.38712
C   0.25979  -9.74211   1.99268
C  -1.01573  -9.62012   1.25395
O  -1.62919 -10.61406   0.89437
C  -1.51819  -8.26792   0.97482
H   1.83444  -8.77737   2.95718
H  -1.26935  -6.20618   1.18031
H   0.66495 -10.72122   2.19949
H  -2.43884  -8.15003   0.42262
O   0.42029 -13.99956   5.86533
C  -0.19317 -13.00562   5.50575
C   0.30929 -11.65342   5.78488
C  -1.46869 -13.12761   4.76702
C  -0.34471 -10.57079   5.37258
C  -1.62023 -10.69278   4.63385
O  -2.23369  -9.69884   4.27427
C  -2.12269 -12.04498   4.35472
H   1.22994 -11.53553   6.33708
H  -1.87385 -14.10673   4.56021
H   0.06045  -9.59167   5.57939
H  -3.04334 -12.16287   3.80252
O  -0.18421  -6.31334   9.24523
C  -0.79767  -7.30728   8.88565
C  -0.29521  -8.65948   9.16478
C  -2.07319  -7.18529   8.14692
C  -0.94921  -9.74211   8.75248
C  -2.22473  -9.62012   8.01375
O  -2.83819 -10.61406   7.65417
C  -2.72719  -8.26792   7.73462
H   0.62544  -8.77737   9.71698
H  -2.47835  -6.20618   7.94011
H  -0.54405 -10.72122   8.95929
H  -3.64784  -8.15003   7.18242
O  -0.78871 -13.99956  12.62503
C  -1.40217 -13.00562  12.26545
C  -0.89971 -11.65342  12.54458
C  -2.67769 -13.12761  11.52672
C  -1.55371 -10.57079  12.13228
C  -2.82923 -10.69278  11.39355
O  -3.44269  -9.69884  11.03397
C  -3.33169 -12.04498  11.11442
H   0.02094 -11.53553  13.09678
H  -3.08285 -14.10673  11.31991
H  -1.14855  -9.59167  12.33909
H  -4.25234 -12.16287  10.56222
O   3.44269   0.45756 -11.03397
C   2.82923  -0.53638 -11.39355
C   3.33169  -1.88858 -11.11442
C   1.55371  -0.41439 -12.13228
C   2.67769  -2.97121 -11.52672
C   1.40217  -2.84922 -12.26545
O   0.78871  -3.84316 -12.62503
C   0.89971  -1.49702 -12.54458
H   4.25234  -2.00647 -10.56222
H   1.14855   0.56472 -12.33909
H   3.08285  -3.95032 -11.31991
H  -0.02094  -1.37913 -13.09678
O   2.83819  -7.22866  -7.65417
C   2.22473  -6.23472  -8.01375
C   2.72719  -4.88252  -7.73462
C   0.94921  -6.35671  -8.75248
C   2.07319  -3.79989  -8.14692
C   0.79767  -3.92188  -8.88565
O   0.18421  -2.92794  -9.24523
C   0.29521  -5.27408  -9.16478
H   3.64784  -4.76463  -7.18242
H   0.54405  -7.33583  -8.95929
H   2.47835  -2.82077  -7.94011
H  -0.62544  -5.39197  -9.71698
O   2.23369   0.45756  -4.27427
C   1.62023  -0.53638  -4.63385
C   2.12269  -1.88858  -4.35472
C   0.34471  -0.41439  -5.37258
C   1.46869  -2.97121  -4.76702
C   0.19317  -2.84922  -5.50575
O  -0.42029  -3.84316  -5.86533
C  -0.30929  -1.49702  -5.78488
H   3.04334  -2.00647  -3.80252
H  -0.06045   0.56472  -5.57939
H   1.87385  -3.95032  -4.56021
H  -1.22994  -1.37913  -6.33708
O   1.62919  -7.22866  -0.89437
C   1.01573  -6.23472  -1.25395
C   1.51819  -4.88252  -0.97482
C  -0.25979  -6.35671  -1.99268
C   0.86419  -3.79989  -1.38712
C  -0.41133  -3.92188  -2.12585
O  -1.02479  -2.92794  -2.48543
C  -0.91379  -5.27408  -2.40498
H   2.43884  -4.76463  -0.42262
H  -0.66495  -7.33583  -2.19949
H   1.26935  -2.82077  -1.18031
H  -1.83444  -5.39197  -2.95718
O   1.02479   0.45766   2.48543
C   0.41133  -0.53628   2.12585
C   0.91379  -1.88848   2.40498
C  -0.86419  -0.41429   1.38712
C   0.25979  -2.97111   1.99268
C  -1.01573  -2.84912   1.25395
O  -1.62919  -3.84306   0.89437
C  -1.51819  -1.49692   0.97482
H   1.83444  -2.00637   2.95718
H  -1.26935   0.56482   1.18031
H   0.66495  -3.95022   2.19949
H  -2.43884  -1.37903   0.42262
O   0.42029  -7.22856   5.86533
C  -0.19317  -6.23462   5.50575
C   0.30929  -4.88242   5.78488
C  -1.46869  -6.35661   4.76702
C  -0.34471  -3.79979   5.37258
C  -1.62023  -3.92178   4.63385
O  -2.23369  -2.92784   4.27427
C  -2.12269  -5.27398   4.35472
H   1.22994  -4.76453   6.33708