192
TotEnergy=-30020.75370951 cutoff=-1.00000000 nneightol=1.20000000 pbc="T T T" Lattice="12.41720144       0.00000000       0.00000000      -0.00000053      12.41720144       0.00000000      -0.00000053      -0.00000053      12.41720144" Properties=species:S:1:pos:R:3:force:R:3:Z:I:1
O               6.20507905      7.72080133     13.40638711     -2.16681277      1.94828956      0.16195329       8
H               6.71737550      8.54028516     13.08131355     -1.90760442     -1.77594336      0.80552154       1
H               5.13313006      7.95771397     13.63440957      3.94763095     -0.05203039     -1.16753289       1
O               5.65166552      1.80564260      2.34580024     -0.98650150      0.77959453      2.03943517       8
H               5.36850280      2.06814096      3.38698286      0.56175523     -0.33104653     -4.48189080       1
H               5.27857971      2.40037958      1.59145812      0.59301985     -0.87106925      2.19428244       1
O              -0.67860098     10.93772251      0.17576092      0.80578379      2.93734674     -1.03828867       8
H              -1.05882010     10.28889833      0.81260452     -0.26023885      0.63628123      0.17682198       1
H              -0.85530383     11.96099248      0.26722497     -0.10401296     -2.88968362      0.88041778       1
O               4.87616161      3.30782324     12.67538171      0.30845321      2.65652569     -1.73107246       8
H               5.61462312      3.97397268     12.36337883     -0.81940035     -1.42675667      1.36469538       1
H               4.11568104      3.82291375     12.33009358      0.25031594     -0.46419728      0.72414612       1
O               8.94050188      9.17000604      6.47570027      2.65888082     -1.12853954     -1.15637944       8
H               8.43482014      9.89132749      6.72970533     -1.94483400      2.23878824      0.69188391       1
H               8.48752619      8.37825110      6.69557340     -0.88592508     -0.85553464      0.56731395       1
O               8.07434462      2.23016973     12.54949045      2.13025169      2.03057515     -0.58365589       8
H               8.06513694      2.79208184     13.38903010     -0.27731047     -0.98612612     -0.93501773       1
H               8.70983353      2.78427118     11.93839661     -1.98202243     -1.58683357      1.23805311       1
O              -0.69124302      1.50158267      1.08142125      0.58458663     -0.11390708      1.22854517       8
H               0.35021424      1.67399919      1.15328881     -3.08107142     -0.60624560      0.67928551       1
H              -1.23054868      1.37320957     14.37419931      2.44166887      0.47154087     -2.04211940       1
O               9.00744280      7.16717613     12.94991885      1.29503905     -1.25908474      7.44370415       8
H               8.53049538      7.51177633     12.31871627     -6.67011058      4.13997005     -4.12937196       1
H               9.53953048      6.99736317     12.27071990      5.75428356     -2.83906888     -3.59049441       1
O               1.75995873     -2.07698880      6.77188076      4.85456708      2.27824954      1.20788379       8
H               0.96833079     -2.34621300      6.50004242     -4.83714015     -2.06727508     -2.02644596       1
H               2.46011839     -2.26628078      6.11771189     -0.62746235     -0.21911354      0.45303510       1
O               7.62496734      7.64417647      3.80853071      0.10094512      0.24957957      2.28363343       8
H               7.76340009      7.41763571      2.90607190      0.31003341     -0.23377603     -1.01254164       1
H               8.47059252      7.60829825      4.30440151     -0.54551614     -0.21777554     -1.22140265       1
O               1.98764252     14.40049942     13.46740124      0.60513488      1.30196560     -0.89642033       8
H               2.35467983     14.12680896     12.59071336     -0.17864643      0.62868619      0.96027625       1
H               2.05589050     15.40371357     13.48862125     -0.10509076     -2.23381573     -0.12809443       1
O               3.35091943     12.54747958      3.06067102     -3.10100775      1.60211106     -1.40173469       8
H               2.84262884     13.19328745      2.44007845      1.37773087     -1.43166234      1.40041315       1
H               4.21969082     12.55229509      2.69464973      1.27244419      0.23887813     -0.21185172       1
O              -4.18764385      3.79459219      2.40153847      1.91063832     -6.11454656      1.99449229       8
H               7.87039973      4.54598149      2.18878278     -3.94890107      6.51106212     -2.19773801       1
H               9.14878603      4.02124937      2.34907055      1.59007830     -0.33265552      0.39101751       1
O              10.80399943      7.29835916     -2.29416313     -1.76694964      0.96019911     -0.37114237       8
H              11.14367828      6.62043024     -2.86984972      1.01845517     -0.80723389     -0.13395603       1
H              11.55738902      7.61909347     10.60942097      0.74432414     -0.39834053      0.74508518       1
O              12.07032049     11.43811248      9.92143767      0.70903317     -0.28320858      0.83880704       8
H              12.01999574     11.20500992     10.87729047     -0.55485439     -0.02377242     -0.27702199       1
H              11.56252204     10.76568700      9.45343335     -0.55928697     -0.32859884     -0.54571154       1
O               4.75685332      6.98228162     -1.95533096     -0.17137484      1.48667881     -0.63947968       8
H               5.37855716      6.81987713     -2.68403973     -0.18797542      0.23154225      0.47217079       1
H               4.59089276      8.01587054     -1.91456315      0.25464568     -1.89265602     -0.22788357       1
O              11.10531293     -3.09879295      8.26892308     -1.35564509      0.32720581     -1.14437239       8
H              10.35451630     -3.00471053      7.55400467      1.57719707     -0.65526626      2.31539170       1
H              10.88819152      8.62119635      8.94722243     -0.28341632      0.56870235     -1.02353567       1
O              11.14320202      3.15585942      8.43968857     -1.91902526      1.80756793     -3.39540937       8
H              10.86310852      3.25024347      7.41350812      0.48947637     -0.85867653      3.20496774       1
H              11.79573043      2.46347867      8.54007349      0.87159889     -0.69348314      0.25332567       1
O               2.04703208     10.67710273      9.32759501     -2.37840944      0.79496973      4.04711722       8
H              13.37971658     10.87559710      9.65864827      2.91138374      0.05920223     -0.94700421       1
H               1.92093973     10.37028578      8.46228444      0.00066489     -0.68959563     -2.32299188       1
O               7.62713696      0.80331746      9.18630469      0.55654617     -3.08910868     -3.17072579       8
H               7.54395031     -0.04216219      8.51483173      0.43785170      3.36605765      2.60909397       1
H               6.76923487      0.86389238      9.57816042     -0.99557235     -0.10293824      0.76373597       1
O               4.08930156     -3.12194974      5.99737699     -2.31657440     -2.57938230     -3.85974549       8
H               4.01184060     -3.84094282      6.61910730      0.36437265     -0.06073306      0.75847035       1
H               3.51032348     -3.62464163      5.19730338      2.45349080      2.41762905      3.01887643       1
O               4.21163145      9.52317891     -1.91598134     -1.97200542      0.82775130      2.63918102       8
H               3.20690914      9.82258737     -2.13330913      2.48693057     -0.46039462      0.25706046       1
H               4.38566196      9.65420318     -0.89629919     -0.37524379      0.12339445     -2.85083425       1
O               5.65304138      1.14185858     -1.05080306      1.93557802      0.75057192      1.63733004       8
H               6.56507830      1.43330293     -0.46566642     -3.85040724     -0.08702619     -2.22255944       1
H               4.88805222      1.79703818     -0.95267244      2.39355838     -1.06444193      0.46775569       1
O               6.90787930      5.06211448     12.53821898      1.24180178      1.41419426     -6.25606009       8
H               7.32624680      5.00053413     11.48012915     -1.10682914     -0.43495510      4.64008050       1
H               6.65170461      6.00346253     12.30982609     -0.22064849     -0.80020964      1.63278432       1
O              11.13870401      0.50249610      3.92426177     -2.27427461      2.45139278     -2.25569582       8
H              11.77519836      0.28526303      4.51578135      3.16664802     -1.41683221      2.39625804       1
H              10.57772325     -0.24199433      3.74183322     -0.24673799     -0.39823666      0.34484204       1
O               2.94806211     17.54158950     -1.01733260     -3.77589667      1.06019447      0.83231758       8
H               2.02356836      5.55911243     -0.75248999      2.58836574     -1.81847969     -0.64949156       1
H               3.36260895     18.28698852     -1.45117854      1.24436774      0.43268327     -0.04372675       1
O               1.03211252      4.60551393      5.74316026     -1.14559109     -0.99715101     -2.93172116       8
H               1.24077239      5.38030345      6.20243316      0.28479083      0.91663948      1.30249525       1
H               1.01055913      3.81153115      6.23365462      0.40361386     -0.46553271      1.27133862       1
O              -1.71671966      3.98756195      3.02660259      2.51778381      1.11821398     -4.80078989       8
H              -1.71143847      3.94162407      3.93124162      0.36506068     -0.37768531      3.70338127       1
H              -0.78157357      4.17322906      2.66461892     -2.26563570     -0.59138462      1.19341362       1
O               6.95079557      7.24665855      7.98496659      0.18312118      1.33929802      0.85812631       8
H               7.53521888      6.82294636      8.65024818     -0.44767640     -0.23279284     -0.19546402       1
H               6.77690794      6.68678906      7.24279556     -0.27590099     -1.08844061     -0.70952682       1
O               2.63745097     10.01118613      3.70334087     -0.91473172      0.42765625      0.47929583       8
H               2.60642001     10.85421834      3.16411988      0.88610506     -1.54315052      0.35600731       1
H               3.03119056      9.23636486      3.27799881     -0.05413510      1.02189017     -1.06911105       1
O               1.47298064      0.41531415      5.19693296      0.29143302      1.22791268     -0.90921928       8
H               1.57503246     -0.27021111      5.85539875      0.57847254     -0.81546657     -0.29085452       1
H               2.14920032      0.41491938      4.45807986     -0.62048951     -0.69889274      1.53001732       1
O               4.81862417     12.26442269      6.41823163     -0.94706078     -1.70732575      2.35712584       8
H               4.53959432     12.14588699      7.49706520      0.58082253      1.03360926     -3.13021548       1
H               4.43856381     11.44070544      6.01526318      0.74145478      1.20369803      0.42456578       1
O               6.34705729      9.95615170     -3.70222960     -0.98531365     -2.17789937      0.51572219       8
H               5.56556839      9.90540361     -3.11532974      0.14492487      1.16321858      0.06928044       1
H               6.31969883      8.97320503     -3.87815985      0.99917704      1.20878881     -0.58582076       1
O              10.82029808     -3.44146165      1.66655895      1.96348478     -3.63095329      1.50089186       8
H              10.20899257     -4.03895035     13.52852121      0.74610334      0.72811590      1.37272236       1
H              11.52749051     -4.15263349      2.20991282     -3.18920174      2.83440490     -2.47907842       1
O               8.96156313      3.53638017      9.95969719      1.81037043     -3.11644465     -1.01060817       8
H               8.40693250      2.70582066      9.69886574      1.76012079      1.92576155      0.38213486       1
H              10.01811835      3.29918177      9.62144711     -3.83381849      0.69926298      0.25551471       1
O               7.78255631     11.74133102      6.23682968     -3.26622685     -5.28963377      4.08973583       8
H               6.80347264     11.82838067      6.39902249      1.14446495     -0.07433677     -0.32881018       1
H               8.02126815     12.42169416      5.75549009      1.89494945      5.24505083     -3.81606245       1
O               3.67833195      5.63721898      2.78303291     -5.34969474     -1.95182740      6.39947624       8
H               3.74000227      5.51482029      3.89240001     -0.26764569      0.75869146     -4.79290174       1
H               4.46200107      5.85799171      2.45396935      5.34131294      1.19337762     -1.79774632       1
O               3.53028934      8.34448959      1.49705820     -0.73721246     -1.31599868      0.43654558       8
H               2.95456041      8.99871137      1.01895188      0.11774728     -1.04352857      0.64342376       1
H               3.03206899      7.50061069      1.72032865      0.53201271      1.80911059     -0.66266075       1
O              10.51760872     10.18618503      4.24868973     -1.67413795     -0.80051817     -3.44827640       8
H              10.05500200      9.80216113      3.32828123      1.69068557      1.15738217      3.57910442       1
H               9.91858012     10.12448297      5.00802199     -0.21522038     -0.43830319     -0.58916833       1
O               7.44938634      3.21229088      5.12136116     -0.30868615      1.21563823     -2.18601892       8
H               6.49469773      2.86061029      5.18118994      2.04159490      0.50901573     -1.09246696       1
H               7.72858023      3.52778104      4.11401943     -1.48533669     -1.45315676      2.95000685       1
O               6.25556255      5.76850785      5.72315736      1.09738805     -2.00517265      0.38251590       8
H               6.82723269      4.85657147      5.68346907     -1.24580756      2.76455831     -0.56466058       1
H               6.61540306      6.49321604      5.17362270      0.30703191     -0.99589117     -0.31026995       1
O              12.32040964     17.01680446     12.14530490      0.42726544      0.32627456     -2.17757027       8
H              12.07868149     16.38962363     12.80741143     -0.37981470     -1.01659370      0.06319412       1
H              12.24711860     16.62002739     11.22940498     -0.04090677      0.53183787      1.99129383       1
O               0.60875488      6.89549655      2.20527194      1.62267475     -2.25684253      0.80544955       8
H               1.13221168      5.96012292      2.18400960     -2.36277199      3.26227249      0.41668844       1
H               0.47299341      7.12743492      3.15582238      0.46011591     -0.41045608     -0.97599083       1
O               8.70364216     12.63500549      3.13463941     -4.21300995      0.00526613     -2.74684341       8
H               8.59018657     12.04529041      2.30551927      0.99057413      1.05491856      1.49262834       1
H               7.80875058     13.14629651      2.94843254      2.64226635     -0.90557860      0.95728863       1
O               0.51921809      7.52706955     11.79239662     -0.16284392      0.62397079      0.06381067       8
H               0.66003215      8.46027356     11.78620525      1.31584956      1.49415557     -1.35819563       1
H               0.14195814      7.65909927     12.65490255     -0.57933129     -1.82200210      1.36725106       1
O               3.73634036     12.68342520      8.75835908      1.21651241      0.53535000     -1.20762667       8
H               3.88589113     13.53391882      9.19286649     -0.39071052     -0.77330047      0.82486652       1
H               3.17298889     12.06042488      9.22324126     -0.66415713     -0.15408211      0.46448216       1
O               0.23468321      8.77735655      4.48352270      0.56819841      3.18793161     -2.13737364       8
H               0.92714493      9.37373926      4.02029156     -0.32740739     -1.64542901      1.15015737       1
H              -0.54155466      9.45152831      4.34467190      0.27705181     -1.63548398      0.70633865       1
O              -4.18233091      6.05870863      9.96197265     -1.00095625      3.24407423      0.56688715       8
H               8.27717825      5.17329991      9.71262435      0.98395097     -2.96460043     -0.73384432       1
H              -3.33948391      6.48787135      9.80808792      0.37915187     -0.14641302      0.51992338       1
O              13.62922363      4.19345951      2.72445299     -6.49208738     -1.53939157     -1.18432219       8
H              14.44648492      4.39580100      2.52539240      6.94424162      1.63846132     -1.27343664       1
H              13.56778616      4.12906923      3.64007244      0.01811805     -0.02640266      2.87121796       1
O               3.35466071      5.95599533      5.66388951     -0.60362822      0.66290243     -1.38647262       8
H               3.27995147      5.96985978      6.59561183     -1.10136812     -0.26721529      1.83787610       1
H               4.27755106      5.85164159      5.63864776      2.63294353     -0.13618672     -0.45874809       1
O              12.29680834      7.15717468      6.44834181      1.96651868     -0.97453559     -0.93638041       8
H              12.63183043      7.74874189      5.74390111      0.75486052     -0.24841332     -0.00111175       1
H              -0.89391789      7.62427941      6.57476225     -2.60526303      1.26331163      1.52945682       1
O              10.35541590      6.71758717      4.15544342     -2.51828774      5.06540784      2.07558489       8
H              10.93888670      6.93698405      4.86565215      0.69563258     -0.38852508      0.30231239       1
H              10.61259603      5.98700512      3.74220893      1.73430177     -4.71555781     -2.49314235       1
O              10.30122816      3.02390908      5.69569306      1.22223054     -4.37488147     -2.94788826       8
H              10.77261922      2.17632065      5.24254274      0.39182175      2.61684328      1.67693531       1
H               9.55090779      2.55279320      5.27282226     -1.47260973      1.58725008      1.11412079       1
O               5.01704975     10.88618065     13.04871623      1.30009384     -0.51343957      3.35443627       8
H               5.46449554     10.68599291     14.05658715     -1.88879423      0.91192922     -3.73281012       1
H               5.08668947     11.82901568     12.80180215      0.43739302     -0.48259147      0.30134668       1
O             -10.05902375      2.30629187      6.99365893      3.08532916     -3.50974119      1.49175931       8
H             -10.22888963      1.51564291      6.37727331     -0.06652319      1.40311795      0.24288442       1
H              -9.17085272      1.90238149      7.48224824     -3.55290488      1.57241996     -1.69473763       1
O              13.06893080      1.62564826      9.12661351      4.53131769      9.15353930     -6.17460754       8
H              13.70690685      1.69488052      8.13609960     -1.78747733     -0.38172966      3.69132280       1
H              12.84037917      0.86645360      9.41527967     -2.25887884     -8.80741737      2.34261968       1
O               8.04576905     -3.09730067     11.21860977      0.99898164     -0.95302574      1.39015959       8
H               8.68998939     -2.41535000     11.43472574     -0.49507726      0.21789587     -0.25116954       1
H               7.50770167     -2.83849068     10.49432492     -0.47540575      0.75860919     -1.08218768       1
O              15.21701985      5.95620700      8.36295787      4.14844954      5.52396413     -1.22506390       8
H              14.85919022      5.76094061      9.16640763     -2.03213324     -1.79360684      3.18792647       1
H              15.75508724      6.86374592      8.76904846     -1.82559136     -3.74965599     -1.90168574       1
O              14.43912935     10.35208209     12.94801381     -0.34513926      2.18753073     -1.13782636       8
H              13.60048931     -1.49260253     12.72152596      1.93972778     -1.69095811      0.69654275       1
H              15.28269074     10.83580298     12.71210661     -1.57501163     -0.47405129      0.50108130       1
O              15.38238773     14.63249070     10.53602409      7.13013239      5.04059155      0.65875782       8
H               3.17465050     15.73021591     10.50702518     -1.26149129     -4.32457012      0.30455799       1
H              14.50781655     14.56861902     10.49702373     -6.02244964     -0.28483557     -0.98393040       1
O              -3.74211368     11.82462351      0.39310405     -0.78472645      4.40968393     -0.53929407       8
H              -4.72246209     11.97252854      0.35813814      1.19228233     -0.74772313     -0.15506376       1
H              -3.50457133     12.89102142      0.21396010     -0.70143299     -3.70422973      0.70696600       1
O               4.92327955      2.22403127      4.87850057      0.33181066     -1.81002591      1.49261805       8
H               4.97036045      1.32066227      5.36437521     -0.48519394      1.40892350     -0.59724674       1
H               4.50767964      2.83836897      5.48386343     -0.46285517      0.03436897     -0.05217900       1
O              12.48900550      5.50286089      8.97045331      0.10707000      1.13615514     -1.88665507       8
H              11.92098668      4.93558292      8.39994736      0.77104304      0.04178866      0.72642926       1
H              12.92822258      6.14126028      8.32353417     -0.99590146     -1.27781265      1.18464101       1
O               5.95742411     -2.25480292      3.43497923      0.53002781     -1.18261498      2.69387353       8
H               5.61457020      9.43877514      4.16795317      1.94308565      3.08000698     -2.83019858       1
H               6.86739724     -1.87549928      3.70850035     -2.43903606     -1.41879139     -0.20432250       1
192
TotEnergy=-30014.79305541 cutoff=-1.00000000 nneightol=1.20000000 pbc="T T T" Lattice="11.95422959       0.00000000       0.00000000      -0.00000053      11.95422959       0.00000000      -0.00000053      -0.00000053      11.95422959" Properties=species:S:1:pos:R:3:force:R:3:Z:I:1
O               9.11894044      6.48728925     10.77965727      0.45985263     -0.03600265     -0.23196083       8
H              10.71657935      3.96526771     11.85108237     -3.05550436     -0.55082290      1.61318737       1
H               8.59817714      6.65837224     11.57014219     -0.16739580      0.05968097     -0.31424231       1
O              10.68260617      0.93723105      3.92707699     -0.08958547      0.15943258      0.00037898       8
H              10.50183924      0.66956263      3.00748871      0.29959833     -0.24804000      0.28170140       1
H               9.96943405      1.55245776      4.16688952      0.14762658      0.24073446      0.09368329       1
O               1.14688577      9.18519342      4.64288971     -0.05981363      0.29814772      0.14226686       8
H               1.01480843      9.48523690      3.71635863      0.05308506      0.08674286     -0.34551515       1
H               0.74177945      8.31649611      4.70600997     -0.12130311      0.02842818     -0.41459916       1
O              10.50977690      2.67830345      7.65132036      0.08831226     -0.22137046      0.03295126       8
H               9.77157469      2.08313255      7.49457807     -0.15028665      0.27188235     -0.05413612       1
H              11.17902731      2.11974103      8.06968786      0.00463261     -0.14123791      0.02299286       1
O               1.04328345      5.15491100     10.53258443     -0.28239559      0.04422092     -0.43777714       8
H               0.12704010      4.82395828     10.45188491      0.45637393      0.25953797      0.14445950       1
H               1.25894433      5.43623748      9.61557325     -0.05581763     -0.46654264      0.46642180       1
O               8.25183066      2.99017933     10.53422488      0.19034084     -0.03632198     -0.55701411       8
H               7.52373574      3.14049211     11.15013424     -0.12998881      0.11726597      0.13110570       1
H               8.34740006      2.03528434     10.51797914     -0.21336198     -0.33319391     -0.22123624       1
O               2.95302050      1.11822553      9.99927964     -1.78792984     -0.27860939      0.81934379       8
H               2.12756226      1.63863956     10.13728906      0.75298361     -0.45081160     -0.75886630       1
H               2.57692897      0.33646357     10.51660328      0.37412228      0.15248597     -0.60596278       1
O               7.34984811      0.06922432     10.70467286     -0.08597975      0.37672526      0.14885866       8
H               7.13473757      0.34031175     11.60453871     -0.21872068     -0.04684499      0.03082033       1
H               6.53951904     -0.24689239     10.28974501      0.12301804      0.11000723      0.21356304       1
O              10.45791753      4.97331326      6.22815117     -0.07082876      0.11695178     -0.19629089       8
H              10.07675119      5.40480435      7.03673395     -0.47755262      0.25898518      0.15322233       1
H              10.55131731      4.02739841      6.41600908     -0.28851482      0.10087981      0.63425520       1
O               7.17045703      3.84596471      7.65608296      0.03790681     -0.95867702     -0.01704179       8
H               7.45727108      2.82402297      7.72175385      0.13874188      0.07011759      0.06653758       1
H               6.20148064      3.86923792      7.73265490      0.04003259     -0.40588003     -0.02983303       1
O               4.15550692      2.60259406      2.73220544     -1.33032487     -0.32967613     -2.09578862       8
H               3.79062865      1.87824571      2.13419286      0.51190102      0.79996795      1.40542166       1
H               4.00564393      3.39614291      2.18483511      0.59020192     -0.63541734      0.68893743       1
O               3.54215349      3.67423083      8.78275415     -0.75695340     -0.12690915      0.09841567       8
H               3.18116467      2.97608734      9.35050838      0.53017180      0.19378560     -0.49719997       1
H               2.81983718      3.98640834      8.22468387      0.11271306      0.08260441      0.62446444       1
O              11.86462931      0.53439490      8.99453087      1.53001732     -0.81988372     -0.25532907       8
H              12.31575288      0.24916891      9.83449386     -0.40771323      0.27813630     -0.24310296       1
H              12.36946437     -0.02640065      8.35396186     -0.90356799      0.69090689      0.49075164       1
O              11.84938900      6.96074410      3.17368740      0.20005909      0.73206511     -0.16636273       8
H              12.13678515      6.31064990      3.81838399     -0.10361289     -0.50920239      0.95616248       1
H              10.89851048      6.78415767      2.99609553     -0.30718669     -0.07303065     -0.14207557       1
O               8.10122683     10.89872215      8.19055194      0.05213632      0.21973781     -0.13348860       8
H               8.10662443     10.46633145      9.05014740     -0.01784140      0.14659660     -0.34135614       1
H               7.37371400     10.56327671      7.65116161      0.16377671     -0.29306156      0.15247209       1
O               4.39571633     11.31862426      2.85973185     -0.08806697      0.08185056      0.05307117       8
H               4.42704891     10.41664171      2.54611498      0.00800230     -0.04416436     -0.06703895       1
H               5.29976268     11.53675111      3.12914126      0.07096708     -0.12987774      0.34843747       1
O               5.85645710      2.44559777      4.77088181      0.30021385      0.09805571     -0.03935331       8
H               5.22649809      2.32505649      4.04030504      0.17638386      0.19081958      0.09503004       1
H               5.44819688      2.02857967      5.56001203     -0.06131053      0.17866032      0.58574877       1
O               6.65831933      7.22935445      6.45178146      1.90462708      0.12100024      1.00815019       8
H               6.76743567      6.47379523      5.85523999     -0.27062714     -0.26174861     -0.63640464       1
H               7.33085064      7.00773504      7.17156830      0.13803020      0.15923409     -0.23259384       1
O               6.10464121      3.38307224      0.26566760      0.94675739      0.31350234      0.42313059       8
H               6.25524505      2.86461616      1.06528135      0.33349216     -0.19597875      0.05838102       1
H               5.21611034      3.10078795      0.04482396     -0.56083992     -0.20724276     -0.37404206       1
O               0.75513059      7.67021199      8.46260194      0.36119168      0.65468005      0.48399221       8
H               1.27353904      7.94321451      9.23710571     -0.41610120     -0.34219997     -0.37357823       1
H               0.33860092      8.52192271      8.23161609      0.10266364     -0.33323711     -0.10610378       1
O               4.53650922      6.89708408      7.38043455     -0.28374285     -0.15270400      0.10299531       8
H               5.49878622      7.15791553      6.99064261     -0.76046038     -0.22804607      0.65606330       1
H               4.29874461      7.43541606      8.12255267      0.08105300      0.09080777      0.52201111       1