192
pbc="T T T" Lattice="12.94227753       0.00000000       0.00000000      -0.00000053      12.94227753       0.00000000      -0.00000053      -0.00000053      12.94227753" Properties=species:S:1:pos:R:3:nummol:I:1 Time=0
O              13.18751941     -1.30046358    -19.38937048       8
H              12.19176666     -1.64734982    -19.70010334       1
H              13.33965786     -1.23209388    -18.42796133       1
O              27.25982313     26.19511858      0.65338039       8
H              27.97045520     26.44933531      0.34612370       1
H              27.11906199     25.29684026      0.88102185       1
O               7.22385101     -0.12472548      8.81434603       8
H               7.35408152      0.72025252      9.29298682       1
H               7.93749940     -0.77283686      8.99828803       1
O              -1.65223942     -4.51222528     -1.34866633       8
H              -0.94853427     -5.03360771     -1.32443530       1
H              -1.43481109     -3.51718162     -1.41600413       1
O               3.19712995     18.31328862     10.38986534       8
H               3.15211284     17.49581567     10.04669392       1
H               3.15483282     17.75267829     11.39429660       1
O              -4.39941528      6.09151762      3.25106898       8
H              -4.75863135      7.11939143      3.40177336       1
H              -4.51271741      5.95652451      2.35327751       1
O              23.59437134     15.66645006      6.37954877       8
H              24.41036260     15.33518512      6.03420773       1
H              22.99830614     14.82378827      6.42521677       1
O               0.83875117    -19.35380977      3.26502868       8
H               1.36545712    -20.04174015      3.00152489       1
H               1.00471173    -19.10059848      4.23717484       1
O              17.39982292    -18.28582433      9.32976464       8
H              16.91758373    -18.92882755     10.07415822       1
H              17.66134230    -18.93036217      8.66003796       1
O               5.58197288    -15.46541563    -13.18286266       8
H               6.41405113    -15.68962802    -12.78026463       1
H               4.70007260    -15.94612021    -12.69469668       1
O              -6.13660352      2.76742218      4.16703769       8
H              -5.50767640      3.28560309      4.85695777       1
H              -6.60534869      2.19678923      4.83272675       1
O              -5.13725765     15.49166282     26.07420159       8
H              -5.91905876     15.33354467     26.58491051       1
H              -4.31388966     14.95079080     26.17527443       1
O               5.17702531    -16.52837389     -8.94775161       8
H               4.76955357    -16.81079577     -9.81057505       1
H               4.64039729    -16.85556416     -8.22976397       1
O              14.12792023      7.05964732     18.97862313       8
H              13.33785866      6.77092824     19.49107834       1
H              14.83061465      6.27530086     18.95062966       1
O               1.54694903      1.62464812      3.16257997       8
H               2.29283489      1.20575144      3.74867548       1
H               1.29168453      0.98535972      2.42531970       1
O             -18.07801644     13.16508230     17.15148006       8
H             -17.18243693     12.95177097     16.71014627       1
H             -18.62396856     13.83004638     16.87350327       1
O             -17.21408172      7.74424388     12.07910483       8
H             -17.73299290      7.95787272     11.37508747       1
H             -16.28241233      7.82282670     11.93336943       1
O             -11.16299324     33.68636283    -11.78165432       8
H             -11.60776669     33.33191994    -11.10563044       1
H             -11.26300774     33.28138352    -12.54933170       1
O              36.34150949     11.09970365     19.42244406       8
H              35.77608364     11.93712659     19.62956402       1
H              36.47290419     10.52898603     20.30278326       1
O              31.24008243     -6.81442660      0.86432101       8
H              30.76212957     -7.48780460      0.29623499       1
H              32.11883410     -6.80648895      0.73381533       1
O              15.65613110      9.52111512     -6.59540016       8
H              15.79038336     10.03409950     -5.61187139       1
H              15.17886617      8.81175307     -6.41553282       1
O              -8.05312462      2.95170814     34.59305507       8
H              -7.34471509      2.57449475     35.17774297       1
H              -8.91346093      2.61215100     34.83441279       1
O               5.65939151      0.24437774      1.02953014       8
H               5.63605479      0.38225751      1.96441693       1
H               5.77348211     -0.66763643      0.51248114       1
O              23.40725428      0.58473023     16.11042973       8
H              23.84758264      1.51115548     16.40444059       1
H              24.08909912     -0.02834749     15.99723873       1
O              -2.11036930     32.98012293     17.17090086       8
H              -2.82364726     32.56921683     16.99823034       1
H              -1.35731308     32.40173224     16.82402520       1
O               1.75341810     16.26584908      7.42488543       8
H               2.17773885     16.92668558      6.87268901       1
H               1.31466140     15.82520322      6.62926750       1
O              -6.16105150      9.03982844     10.37642424       8
H              -6.71298333      8.44318114      9.96356018       1
H              -6.38859770      9.72331373     11.05244813       1
O              13.23683873     19.39228096     25.16237634       8
H              12.62521571     18.70583228     25.37679894       1
H              13.45422473     18.97433679     24.34061705       1
O               3.74311912     14.38525911     12.43455316       8
H               3.81076384     14.06505398     11.51844158       1
H               4.48992575     13.85142514     12.87805658       1
O               0.77153508    -14.79240806      9.24668381       8
H               0.42551563    -14.76796007     10.22370370       1
H               1.65599129    -15.07123153      9.26525793       1
O               0.50557591     10.45109114      0.81424497       8
H               0.80949296      9.60599514      0.63012305       1
H               0.23073873     10.66535500      1.74584028       1
O               0.38614220      1.55028814      5.71029836       8
H               0.72982533      1.32656789      4.85401554       1
H               0.37423783      0.54411059      6.04299207       1
O             -18.41187434     28.08655668    -15.54542723       8
H             -18.42034117     29.11337214    -15.86769615       1
H             -17.86126545     28.36553891    -14.67037979       1
O               4.91544773     30.67333364     -9.68023870       8
H               5.58821717     29.99111838     -9.43332462       1
H               5.12965866     31.14557138    -10.63535065       1
O             -21.61990534     21.56137834      1.56193533       8
H             -21.01156322     20.88535445      1.49446523       1
H             -22.57469978     21.37727759      1.49380376       1
O               7.89103764     17.88084501      9.48338478       8
H               8.68734350     18.25857170      8.93039460       1
H               7.10970749     18.08944666      9.07824671       1
O              -9.68156165     -7.93898109      5.84846652       8
H              -9.31076717     -8.04910287      5.03003576       1
H              -8.60669690     -7.65333124      6.38177132       1
O             -23.44921804      1.78434851      9.23520067       8
H             -23.40021623      0.79336364      8.96272732       1
H             -23.83805745      2.27348817      8.60876069       1
O             -10.54851267     -8.79720069     15.36026812       8
H              -9.59773998     -8.43148632     15.59850370       1
H             -10.88702733     -9.44787699     15.95336994       1
O               7.82298545      9.72521877     13.87873069       8
H               7.75101735      9.57572620     14.79246098       1
H               8.37354142      9.13142902     13.43580936       1
O              -9.81782478      0.00423924     17.65933143       8
H              -8.91076212     -0.28346859     17.30726983       1
H             -10.26053443     -0.91063989     17.98662753       1
O              21.53036855      4.41927001     18.75747997       8
H              22.21231923      3.82909454     18.84400045       1
H              21.70118696      5.05130339     18.13024623       1
O              -1.50161442    -16.29802306     -4.22526835       8
H              -0.58674111    -16.09720030     -4.09632374       1
H              -1.35856723    -17.13094798     -4.66498815       1
O              31.24241081    -11.33598127     -6.72642443       8
H              30.98761198    -10.77526510     -5.97642157       1
H              30.45938729    -11.86997400     -6.84697100       1
O               4.94800271     -0.92906584     10.43849673       8
H               5.90307761     -0.87709535      9.96779360       1
H               5.44676810     -1.36451519     11.24432778       1
O             -17.20529738     -1.03665815     25.12528101       8
H             -16.63844275     -1.39973193     24.29860038       1
H             -17.38537639     -1.81086029     25.62789353       1
O               5.36257601     -7.38122831     -5.36993157       8
H               5.37173078     -8.14033302     -4.86034450       1
H               6.18539365     -7.41186767     -5.91598954       1
O              10.49538328      9.81491430      4.13196912       8
H              10.40203642     10.02272219      5.05307084       1
H              10.97772830      8.90700496      4.29364334       1
O               9.07406621     10.79309838     -3.55350434       8
H               8.31760739     10.07294111     -3.53702047       1
H               9.96525355     10.59243438     -3.87708562       1
O              12.41571445     24.39528105     16.13657109       8
H              11.99750571     23.70242933     16.59986574       1
H              13.10078727     24.53228503     16.71258048       1
O              -4.69295517      5.45475868      0.42605274       8
H              -4.44626334      6.14067818     -0.18701176       1
H              -4.32476954      4.74437532     -0.17160211       1
O               8.95838807    -12.38936143      6.72361979       8
H               8.61283535    -12.61341506      5.73744515       1
H               8.06005684    -12.49990655      7.26809023       1
O              -1.44640007      7.14463318     20.34913919       8
H              -1.82341237      6.34541684     20.77168719       1
H              -1.61436091      7.08600035     19.45768726       1
O              24.79877867     24.32103749     -1.27742320       8
H              25.24725636     24.18831985     -0.45179192       1
H              24.21779502     25.12877358     -1.46999608       1
O              12.83789203      4.26671880    -15.84446527       8
H              13.64240014      3.98791650    -16.37216078       1
H              12.93780069      3.53554936    -15.27152510       1
O              -7.45578938     25.02902368      3.57345961       8
H              -6.68070352     25.34430746      3.82899400       1
H              -7.54183360     24.13392043      4.03036709       1
O               3.32427536    -15.64374835     21.86745444       8
H               3.58847766    -16.52620427     21.92312388       1
H               3.83324329    -14.96439065     22.56279329       1
O              -0.93531543     15.99554536      3.30605579       8
H              -0.05495188     15.53616663      3.51837227       1
H              -0.78312935     16.72364029      2.81953555       1
O              -5.00491043     -4.12891576      3.52078002       8
H              -5.98652886     -3.81128244      3.77326105       1
H              -4.28756309     -3.67738473      3.72185149       1
O              -2.21867600      4.83727238      8.38851713       8
H              -1.52966081      4.62846963      9.16206838       1
H              -2.31203344      4.18153185      7.71005903       1
O              11.47256191     -8.44254613      0.53234698       8
H              11.51045100     -9.26763923      0.02668799       1
H              10.37483671     -8.08667445      0.64916814       1
O              12.39634657      2.14166484     25.14369638       8
H              11.44001751      1.78465014     25.36531580       1
H              12.90075828      1.19450113     25.04145934       1
O              10.07251777     13.86110909     26.32497867       8
H              10.34419735     13.74834142     27.20383618       1
H               9.67812199     13.02707288     25.93375795       1
O              -9.53783712      4.27876288     12.89387898       8
H              -9.48497231      3.37857423     12.80508305       1
H             -10.13586028      4.31414896     13.78765929       1